<?xml version="1.0" encoding="UTF-8"?>

<!-- generated on 2024-02-20 20:06:08 by Eclipse SUMO sumo Version 1.16.0
<configuration xmlns:xsi="http://www.w3.org/2001/XMLSchema-instance" xsi:noNamespaceSchemaLocation="http://sumo.dlr.de/xsd/sumoConfiguration.xsd">

    <input>
        <net-file value="../SFO.net.xml"/>
        <route-files value="../gt_v4_trips.xml"/>
        <additional-files value="../additional.add_statfreq300.xml"/>
    </input>

    <output>
        <output-prefix value="gt_v4_"/>
        <vehroute-output value="../routes.vehroutes.xml"/>
    </output>

    <time>
        <begin value="0"/>
        <end value="300"/>
    </time>

    <processing>
        <ignore-route-errors value="true"/>
    </processing>

    <report>
        <verbose value="true"/>
        <xml-validation value="never"/>
        <no-warnings value="true"/>
        <duration-log.statistics value="true"/>
    </report>

    <mesoscopic>
        <mesosim value="true"/>
    </mesoscopic>

    <random_number>
        <seed value="0"/>
    </random_number>

</configuration>
-->

<routes xmlns:xsi="http://www.w3.org/2001/XMLSchema-instance" xsi:noNamespaceSchemaLocation="http://sumo.dlr.de/xsd/routes_file.xsd">
    <vehicle id="0" type="DEFAULT_VEHTYPE" depart="2.00" departLane="free" departSpeed="13.4098" fromTaz="10100" toTaz="10400" speedFactor="1.0000" arrival="135.00">
        <route edges="28518678#1 279611139 8918949#0 399163465#1 706534240#1 706534240#6 -254299128#1 -30030485#6 -30030485#5 -30030485#4 -30030485#3 -30030485#2 425516661#4 148874364#5 30029703#0 48211195#0 30030100#2 30030100#4 -415591483 -148846998#1"/>
    </vehicle>

    <vehicle id="1" type="DEFAULT_VEHTYPE" depart="5.00" departLane="free" departSpeed="13.4098" fromTaz="10100" toTaz="10400" speedFactor="1.0000" arrival="138.00">
        <route edges="28518678#1 279611139 8918949#0 399163465#1 706534240#1 706534240#6 -254299128#1 -30030485#6 -30030485#5 -30030485#4 -30030485#3 -30030485#2 425516661#4 148874364#5 30029703#0 48211195#0 30030100#2 30030100#4 -415591483 -148846998#1"/>
    </vehicle>

    <vehicle id="2" type="DEFAULT_VEHTYPE" depart="8.00" departLane="free" departSpeed="13.4098" fromTaz="10100" toTaz="10400" speedFactor="1.0000" arrival="141.00">
        <route edges="28518678#1 279611139 8918949#0 399163465#1 706534240#1 706534240#6 -254299128#1 -30030485#6 -30030485#5 -30030485#4 -30030485#3 -30030485#2 425516661#4 148874364#5 30029703#0 48211195#0 30030100#2 30030100#4 -415591483 -148846998#1"/>
    </vehicle>

    <vehicle id="3" type="DEFAULT_VEHTYPE" depart="11.00" departLane="free" departSpeed="13.4098" fromTaz="10100" toTaz="10400" speedFactor="1.0000" arrival="144.00">
        <route edges="28518678#1 279611139 8918949#0 399163465#1 706534240#1 706534240#6 -254299128#1 -30030485#6 -30030485#5 -30030485#4 -30030485#3 -30030485#2 425516661#4 148874364#5 30029703#0 48211195#0 30030100#2 30030100#4 -415591483 -148846998#1"/>
    </vehicle>

    <vehicle id="4" type="DEFAULT_VEHTYPE" depart="14.00" departLane="free" departSpeed="13.4098" fromTaz="10100" toTaz="10400" speedFactor="1.0000" arrival="147.00">
        <route edges="28518678#1 279611139 8918949#0 399163465#1 706534240#1 706534240#6 -254299128#1 -30030485#6 -30030485#5 -30030485#4 -30030485#3 -30030485#2 425516661#4 148874364#5 30029703#0 48211195#0 30030100#2 30030100#4 -415591483 -148846998#1"/>
    </vehicle>

    <vehicle id="5" type="DEFAULT_VEHTYPE" depart="18.00" departLane="free" departSpeed="13.4098" fromTaz="10100" toTaz="10400" speedFactor="1.0000" arrival="151.00">
        <route edges="28518678#1 279611139 8918949#0 399163465#1 706534240#1 706534240#6 -254299128#1 -30030485#6 -30030485#5 -30030485#4 -30030485#3 -30030485#2 425516661#4 148874364#5 30029703#0 48211195#0 30030100#2 30030100#4 -415591483 -148846998#1"/>
    </vehicle>

    <vehicle id="630" type="DEFAULT_VEHTYPE" depart="2.00" departLane="free" departSpeed="6.8493" fromTaz="10100" toTaz="11300" speedFactor="1.0000" arrival="154.00">
        <route edges="27054184#0 27054184#1 288265976#0 -399163468 -706549349#1 -706549349#0 775083030#0 775083030#1 30029867#0 706549350#0 706549350#3 706549350#4 706549350#5 -446598044#2 -446598044#0 -30029708#1 30030100#0 30030100#2 30030100#4 148846995#0 30030472#0 -706531342#1 -706531342#0 -706531343#0 -397060249#1 -24335486#1 -397264925 -397135720 -408586848 30035647#1"/>
    </vehicle>

    <vehicle id="6" type="DEFAULT_VEHTYPE" depart="21.00" departLane="free" departSpeed="13.4098" fromTaz="10100" toTaz="10400" speedFactor="1.0000" arrival="154.00">
        <route edges="28518678#1 279611139 8918949#0 399163465#1 706534240#1 706534240#6 -254299128#1 -30030485#6 -30030485#5 -30030485#4 -30030485#3 -30030485#2 425516661#4 148874364#5 30029703#0 48211195#0 30030100#2 30030100#4 -415591483 -148846998#1"/>
    </vehicle>

    <vehicle id="631" type="DEFAULT_VEHTYPE" depart="6.00" departLane="free" departSpeed="6.8493" fromTaz="10100" toTaz="11300" speedFactor="1.0000" arrival="157.00">
        <route edges="27054184#0 27054184#1 288265976#0 -399163468 -706549349#1 -706549349#0 775083030#0 775083030#1 30029867#0 706549350#0 706549350#3 706549350#4 706549350#5 -446598044#2 -446598044#0 -30029708#1 30030100#0 30030100#2 30030100#4 148846995#0 30030472#0 -706531342#1 -706531342#0 -706531343#0 -397060249#1 -24335486#1 -397264925 -397135720 -408586848 30035647#1"/>
    </vehicle>

    <vehicle id="7" type="DEFAULT_VEHTYPE" depart="24.00" departLane="free" departSpeed="13.4098" fromTaz="10100" toTaz="10400" speedFactor="1.0000" arrival="157.00">
        <route edges="28518678#1 279611139 8918949#0 399163465#1 706534240#1 706534240#6 -254299128#1 -30030485#6 -30030485#5 -30030485#4 -30030485#3 -30030485#2 425516661#4 148874364#5 30029703#0 48211195#0 30030100#2 30030100#4 -415591483 -148846998#1"/>
    </vehicle>

    <vehicle id="632" type="DEFAULT_VEHTYPE" depart="9.00" departLane="free" departSpeed="6.8493" fromTaz="10100" toTaz="11300" speedFactor="1.0000" arrival="160.00">
        <route edges="27054184#0 27054184#1 288265976#0 -399163468 -706549349#1 -706549349#0 775083030#0 775083030#1 30029867#0 706549350#0 706549350#3 706549350#4 706549350#5 -446598044#2 -446598044#0 -30029708#1 30030100#0 30030100#2 30030100#4 148846995#0 30030472#0 -706531342#1 -706531342#0 -706531343#0 -397060249#1 -24335486#1 -397264925 -397135720 -408586848 30035647#1"/>
    </vehicle>

    <vehicle id="8" type="DEFAULT_VEHTYPE" depart="27.00" departLane="free" departSpeed="13.4098" fromTaz="10100" toTaz="10400" speedFactor="1.0000" arrival="160.00">
        <route edges="28518678#1 279611139 8918949#0 399163465#1 706534240#1 706534240#6 -254299128#1 -30030485#6 -30030485#5 -30030485#4 -30030485#3 -30030485#2 425516661#4 148874364#5 30029703#0 48211195#0 30030100#2 30030100#4 -415591483 -148846998#1"/>
    </vehicle>

    <vehicle id="633" type="DEFAULT_VEHTYPE" depart="12.00" departLane="free" departSpeed="6.8493" fromTaz="10100" toTaz="11300" speedFactor="1.0000" arrival="163.00">
        <route edges="27054184#0 27054184#1 288265976#0 -399163468 -706549349#1 -706549349#0 775083030#0 775083030#1 30029867#0 706549350#0 706549350#3 706549350#4 706549350#5 -446598044#2 -446598044#0 -30029708#1 30030100#0 30030100#2 30030100#4 148846995#0 30030472#0 -706531342#1 -706531342#0 -706531343#0 -397060249#1 -24335486#1 -397264925 -397135720 -408586848 30035647#1"/>
    </vehicle>

    <vehicle id="9" type="DEFAULT_VEHTYPE" depart="30.00" departLane="free" departSpeed="13.4098" fromTaz="10100" toTaz="10400" speedFactor="1.0000" arrival="163.00">
        <route edges="28518678#1 279611139 8918949#0 399163465#1 706534240#1 706534240#6 -254299128#1 -30030485#6 -30030485#5 -30030485#4 -30030485#3 -30030485#2 425516661#4 148874364#5 30029703#0 48211195#0 30030100#2 30030100#4 -415591483 -148846998#1"/>
    </vehicle>

    <vehicle id="10" type="DEFAULT_VEHTYPE" depart="33.00" departLane="free" departSpeed="13.4098" fromTaz="10100" toTaz="10400" speedFactor="1.0000" arrival="166.00">
        <route edges="28518678#1 279611139 8918949#0 399163465#1 706534240#1 706534240#6 -254299128#1 -30030485#6 -30030485#5 -30030485#4 -30030485#3 -30030485#2 425516661#4 148874364#5 30029703#0 48211195#0 30030100#2 30030100#4 -415591483 -148846998#1"/>
    </vehicle>

    <vehicle id="634" type="DEFAULT_VEHTYPE" depart="16.00" departLane="free" departSpeed="6.8493" fromTaz="10100" toTaz="11300" speedFactor="1.0000" arrival="167.00">
        <route edges="27054184#0 27054184#1 288265976#0 -399163468 -706549349#1 -706549349#0 775083030#0 775083030#1 30029867#0 706549350#0 706549350#3 706549350#4 706549350#5 -446598044#2 -446598044#0 -30029708#1 30030100#0 30030100#2 30030100#4 148846995#0 30030472#0 -706531342#1 -706531342#0 -706531343#0 -397060249#1 -24335486#1 -397264925 -397135720 -408586848 30035647#1"/>
    </vehicle>

    <vehicle id="11" type="DEFAULT_VEHTYPE" depart="36.00" departLane="free" departSpeed="13.4098" fromTaz="10100" toTaz="10400" speedFactor="1.0000" arrival="169.00">
        <route edges="28518678#1 279611139 8918949#0 399163465#1 706534240#1 706534240#6 -254299128#1 -30030485#6 -30030485#5 -30030485#4 -30030485#3 -30030485#2 425516661#4 148874364#5 30029703#0 48211195#0 30030100#2 30030100#4 -415591483 -148846998#1"/>
    </vehicle>

    <vehicle id="635" type="DEFAULT_VEHTYPE" depart="19.00" departLane="free" departSpeed="6.8493" fromTaz="10100" toTaz="11300" speedFactor="1.0000" arrival="170.00">
        <route edges="27054184#0 27054184#1 288265976#0 -399163468 -706549349#1 -706549349#0 775083030#0 775083030#1 30029867#0 706549350#0 706549350#3 706549350#4 706549350#5 -446598044#2 -446598044#0 -30029708#1 30030100#0 30030100#2 30030100#4 148846995#0 30030472#0 -706531342#1 -706531342#0 -706531343#0 -397060249#1 -24335486#1 -397264925 -397135720 -408586848 30035647#1"/>
    </vehicle>

    <vehicle id="819" type="DEFAULT_VEHTYPE" depart="2.00" departLane="free" departSpeed="13.80" fromTaz="10100" toTaz="11700" speedFactor="1.0000" arrival="172.00">
        <route edges="8918949#0 8922283 88142688 396935402 396935396 396935405#2 397094231 513970793 514604867 88142687#1 359898623#1 359898622#0 24335489#1 24335489#2 359898157#0 32931798#1 262943781#1 417101704#1 224199014#1 512984874#1 512984874#2 224199013#0 512984875#0 28319343#0"/>
    </vehicle>

    <vehicle id="12" type="DEFAULT_VEHTYPE" depart="39.00" departLane="free" departSpeed="13.4098" fromTaz="10100" toTaz="10400" speedFactor="1.0000" arrival="172.00">
        <route edges="28518678#1 279611139 8918949#0 399163465#1 706534240#1 706534240#6 -254299128#1 -30030485#6 -30030485#5 -30030485#4 -30030485#3 -30030485#2 425516661#4 148874364#5 30029703#0 48211195#0 30030100#2 30030100#4 -415591483 -148846998#1"/>
    </vehicle>

    <vehicle id="636" type="DEFAULT_VEHTYPE" depart="23.00" departLane="free" departSpeed="6.8493" fromTaz="10100" toTaz="11300" speedFactor="1.0000" arrival="174.00">
        <route edges="27054184#0 27054184#1 288265976#0 -399163468 -706549349#1 -706549349#0 775083030#0 775083030#1 30029867#0 706549350#0 706549350#3 706549350#4 706549350#5 -446598044#2 -446598044#0 -30029708#1 30030100#0 30030100#2 30030100#4 148846995#0 30030472#0 -706531342#1 -706531342#0 -706531343#0 -397060249#1 -24335486#1 -397264925 -397135720 -408586848 30035647#1"/>
    </vehicle>

    <vehicle id="820" type="DEFAULT_VEHTYPE" depart="5.00" departLane="free" departSpeed="11.1709" fromTaz="10100" toTaz="11700" speedFactor="1.0000" arrival="175.00">
        <route edges="8918949#0 8922283 88142688 396935402 396935396 396935405#2 397094231 513970793 514604867 88142687#1 359898623#1 359898622#0 24335489#1 24335489#2 359898157#0 32931798#1 262943781#1 417101704#1 224199014#1 512984874#1 512984874#2 224199013#0 512984875#0 28319343#0"/>
    </vehicle>

    <vehicle id="13" type="DEFAULT_VEHTYPE" depart="42.00" departLane="free" departSpeed="13.4098" fromTaz="10100" toTaz="10400" speedFactor="1.0000" arrival="175.00">
        <route edges="28518678#1 279611139 8918949#0 399163465#1 706534240#1 706534240#6 -254299128#1 -30030485#6 -30030485#5 -30030485#4 -30030485#3 -30030485#2 425516661#4 148874364#5 30029703#0 48211195#0 30030100#2 30030100#4 -415591483 -148846998#1"/>
    </vehicle>

    <vehicle id="637" type="DEFAULT_VEHTYPE" depart="26.00" departLane="free" departSpeed="6.8493" fromTaz="10100" toTaz="11300" speedFactor="1.0000" arrival="177.00">
        <route edges="27054184#0 27054184#1 288265976#0 -399163468 -706549349#1 -706549349#0 775083030#0 775083030#1 30029867#0 706549350#0 706549350#3 706549350#4 706549350#5 -446598044#2 -446598044#0 -30029708#1 30030100#0 30030100#2 30030100#4 148846995#0 30030472#0 -706531342#1 -706531342#0 -706531343#0 -397060249#1 -24335486#1 -397264925 -397135720 -408586848 30035647#1"/>
    </vehicle>

    <vehicle id="821" type="DEFAULT_VEHTYPE" depart="8.00" departLane="free" departSpeed="8.1139" fromTaz="10100" toTaz="11700" speedFactor="1.0000" arrival="178.00">
        <route edges="8918949#0 8922283 88142688 396935402 396935396 396935405#2 397094231 513970793 514604867 88142687#1 359898623#1 359898622#0 24335489#1 24335489#2 359898157#0 32931798#1 262943781#1 417101704#1 224199014#1 512984874#1 512984874#2 224199013#0 512984875#0 28319343#0"/>
    </vehicle>

    <vehicle id="14" type="DEFAULT_VEHTYPE" depart="45.00" departLane="free" departSpeed="13.4098" fromTaz="10100" toTaz="10400" speedFactor="1.0000" arrival="178.00">
        <route edges="28518678#1 279611139 8918949#0 399163465#1 706534240#1 706534240#6 -254299128#1 -30030485#6 -30030485#5 -30030485#4 -30030485#3 -30030485#2 425516661#4 148874364#5 30029703#0 48211195#0 30030100#2 30030100#4 -415591483 -148846998#1"/>
    </vehicle>

    <vehicle id="638" type="DEFAULT_VEHTYPE" depart="29.00" departLane="free" departSpeed="6.8493" fromTaz="10100" toTaz="11300" speedFactor="1.0000" arrival="180.00">
        <route edges="27054184#0 27054184#1 288265976#0 -399163468 -706549349#1 -706549349#0 775083030#0 775083030#1 30029867#0 706549350#0 706549350#3 706549350#4 706549350#5 -446598044#2 -446598044#0 -30029708#1 30030100#0 30030100#2 30030100#4 148846995#0 30030472#0 -706531342#1 -706531342#0 -706531343#0 -397060249#1 -24335486#1 -397264925 -397135720 -408586848 30035647#1"/>
    </vehicle>

    <vehicle id="15" type="DEFAULT_VEHTYPE" depart="48.00" departLane="free" departSpeed="13.4098" fromTaz="10100" toTaz="10400" speedFactor="1.0000" arrival="181.00">
        <route edges="28518678#1 279611139 8918949#0 399163465#1 706534240#1 706534240#6 -254299128#1 -30030485#6 -30030485#5 -30030485#4 -30030485#3 -30030485#2 425516661#4 148874364#5 30029703#0 48211195#0 30030100#2 30030100#4 -415591483 -148846998#1"/>
    </vehicle>

    <vehicle id="822" type="DEFAULT_VEHTYPE" depart="12.00" departLane="free" departSpeed="13.80" fromTaz="10100" toTaz="11700" speedFactor="1.0000" arrival="182.00">
        <route edges="8918949#0 8922283 88142688 396935402 396935396 396935405#2 397094231 513970793 514604867 88142687#1 359898623#1 359898622#0 24335489#1 24335489#2 359898157#0 32931798#1 262943781#1 417101704#1 224199014#1 512984874#1 512984874#2 224199013#0 512984875#0 28319343#0"/>
    </vehicle>

    <vehicle id="639" type="DEFAULT_VEHTYPE" depart="33.00" departLane="free" departSpeed="6.8493" fromTaz="10100" toTaz="11300" speedFactor="1.0000" arrival="184.00">
        <route edges="27054184#0 27054184#1 288265976#0 -399163468 -706549349#1 -706549349#0 775083030#0 775083030#1 30029867#0 706549350#0 706549350#3 706549350#4 706549350#5 -446598044#2 -446598044#0 -30029708#1 30030100#0 30030100#2 30030100#4 148846995#0 30030472#0 -706531342#1 -706531342#0 -706531343#0 -397060249#1 -24335486#1 -397264925 -397135720 -408586848 30035647#1"/>
    </vehicle>

    <vehicle id="823" type="DEFAULT_VEHTYPE" depart="15.00" departLane="free" departSpeed="11.1709" fromTaz="10100" toTaz="11700" speedFactor="1.0000" arrival="185.00">
        <route edges="8918949#0 8922283 88142688 396935402 396935396 396935405#2 397094231 513970793 514604867 88142687#1 359898623#1 359898622#0 24335489#1 24335489#2 359898157#0 32931798#1 262943781#1 417101704#1 224199014#1 512984874#1 512984874#2 224199013#0 512984875#0 28319343#0"/>
    </vehicle>

    <vehicle id="16" type="DEFAULT_VEHTYPE" depart="52.00" departLane="free" departSpeed="13.4098" fromTaz="10100" toTaz="10400" speedFactor="1.0000" arrival="185.00">
        <route edges="28518678#1 279611139 8918949#0 399163465#1 706534240#1 706534240#6 -254299128#1 -30030485#6 -30030485#5 -30030485#4 -30030485#3 -30030485#2 425516661#4 148874364#5 30029703#0 48211195#0 30030100#2 30030100#4 -415591483 -148846998#1"/>
    </vehicle>

    <vehicle id="524" type="DEFAULT_VEHTYPE" depart="2.00" departLane="free" departSpeed="11.1781" fromTaz="10100" toTaz="11200" speedFactor="1.0000" arrival="186.00">
        <route edges="408600375#0 775083030#0 775083030#1 87297168#0 87297168#1 408575052 204967525#1 88396406#1 88396406#2 88396406#5 87297164#0 87297164#7 87297164#13 87297164#18 87297164#22 87297164#24 26938418#1 26938418#5 26938418#8 254758121#1 461084153#4 461084153#7 -769489484#4"/>
    </vehicle>

    <vehicle id="640" type="DEFAULT_VEHTYPE" depart="36.00" departLane="free" departSpeed="6.8493" fromTaz="10100" toTaz="11300" speedFactor="1.0000" arrival="187.00">
        <route edges="27054184#0 27054184#1 288265976#0 -399163468 -706549349#1 -706549349#0 775083030#0 775083030#1 30029867#0 706549350#0 706549350#3 706549350#4 706549350#5 -446598044#2 -446598044#0 -30029708#1 30030100#0 30030100#2 30030100#4 148846995#0 30030472#0 -706531342#1 -706531342#0 -706531343#0 -397060249#1 -24335486#1 -397264925 -397135720 -408586848 30035647#1"/>
    </vehicle>

    <vehicle id="824" type="DEFAULT_VEHTYPE" depart="18.00" departLane="free" departSpeed="8.1139" fromTaz="10100" toTaz="11700" speedFactor="1.0000" arrival="188.00">
        <route edges="8918949#0 8922283 88142688 396935402 396935396 396935405#2 397094231 513970793 514604867 88142687#1 359898623#1 359898622#0 24335489#1 24335489#2 359898157#0 32931798#1 262943781#1 417101704#1 224199014#1 512984874#1 512984874#2 224199013#0 512984875#0 28319343#0"/>
    </vehicle>

    <vehicle id="17" type="DEFAULT_VEHTYPE" depart="55.00" departLane="free" departSpeed="13.4098" fromTaz="10100" toTaz="10400" speedFactor="1.0000" arrival="188.00">
        <route edges="28518678#1 279611139 8918949#0 399163465#1 706534240#1 706534240#6 -254299128#1 -30030485#6 -30030485#5 -30030485#4 -30030485#3 -30030485#2 425516661#4 148874364#5 30029703#0 48211195#0 30030100#2 30030100#4 -415591483 -148846998#1"/>
    </vehicle>

    <vehicle id="525" type="DEFAULT_VEHTYPE" depart="5.00" departLane="free" departSpeed="11.1781" fromTaz="10100" toTaz="11200" speedFactor="1.0000" arrival="189.00">
        <route edges="408600375#0 775083030#0 775083030#1 87297168#0 87297168#1 408575052 204967525#1 88396406#1 88396406#2 88396406#5 87297164#0 87297164#7 87297164#13 87297164#18 87297164#22 87297164#24 26938418#1 26938418#5 26938418#8 254758121#1 461084153#4 461084153#7 -769489484#4"/>
    </vehicle>

    <vehicle id="641" type="DEFAULT_VEHTYPE" depart="40.00" departLane="free" departSpeed="6.8493" fromTaz="10100" toTaz="11300" speedFactor="1.0000" arrival="191.00">
        <route edges="27054184#0 27054184#1 288265976#0 -399163468 -706549349#1 -706549349#0 775083030#0 775083030#1 30029867#0 706549350#0 706549350#3 706549350#4 706549350#5 -446598044#2 -446598044#0 -30029708#1 30030100#0 30030100#2 30030100#4 148846995#0 30030472#0 -706531342#1 -706531342#0 -706531343#0 -397060249#1 -24335486#1 -397264925 -397135720 -408586848 30035647#1"/>
    </vehicle>

    <vehicle id="18" type="DEFAULT_VEHTYPE" depart="58.00" departLane="free" departSpeed="13.4098" fromTaz="10100" toTaz="10400" speedFactor="1.0000" arrival="191.00">
        <route edges="28518678#1 279611139 8918949#0 399163465#1 706534240#1 706534240#6 -254299128#1 -30030485#6 -30030485#5 -30030485#4 -30030485#3 -30030485#2 425516661#4 148874364#5 30029703#0 48211195#0 30030100#2 30030100#4 -415591483 -148846998#1"/>
    </vehicle>

    <vehicle id="526" type="DEFAULT_VEHTYPE" depart="8.00" departLane="free" departSpeed="11.1781" fromTaz="10100" toTaz="11200" speedFactor="1.0000" arrival="192.00">
        <route edges="408600375#0 775083030#0 775083030#1 87297168#0 87297168#1 408575052 204967525#1 88396406#1 88396406#2 88396406#5 87297164#0 87297164#7 87297164#13 87297164#18 87297164#22 87297164#24 26938418#1 26938418#5 26938418#8 254758121#1 461084153#4 461084153#7 -769489484#4"/>
    </vehicle>

    <vehicle id="825" type="DEFAULT_VEHTYPE" depart="22.00" departLane="free" departSpeed="13.80" fromTaz="10100" toTaz="11700" speedFactor="1.0000" arrival="192.00">
        <route edges="8918949#0 8922283 88142688 396935402 396935396 396935405#2 397094231 513970793 514604867 88142687#1 359898623#1 359898622#0 24335489#1 24335489#2 359898157#0 32931798#1 262943781#1 417101704#1 224199014#1 512984874#1 512984874#2 224199013#0 512984875#0 28319343#0"/>
    </vehicle>

    <vehicle id="527" type="DEFAULT_VEHTYPE" depart="10.00" departLane="free" departSpeed="11.1781" fromTaz="10100" toTaz="11200" speedFactor="1.0000" arrival="194.00">
        <route edges="408600375#0 775083030#0 775083030#1 87297168#0 87297168#1 408575052 204967525#1 88396406#1 88396406#2 88396406#5 87297164#0 87297164#7 87297164#13 87297164#18 87297164#22 87297164#24 26938418#1 26938418#5 26938418#8 254758121#1 461084153#4 461084153#7 -769489484#4"/>
    </vehicle>

    <vehicle id="642" type="DEFAULT_VEHTYPE" depart="43.00" departLane="free" departSpeed="6.8493" fromTaz="10100" toTaz="11300" speedFactor="1.0000" arrival="194.00">
        <route edges="27054184#0 27054184#1 288265976#0 -399163468 -706549349#1 -706549349#0 775083030#0 775083030#1 30029867#0 706549350#0 706549350#3 706549350#4 706549350#5 -446598044#2 -446598044#0 -30029708#1 30030100#0 30030100#2 30030100#4 148846995#0 30030472#0 -706531342#1 -706531342#0 -706531343#0 -397060249#1 -24335486#1 -397264925 -397135720 -408586848 30035647#1"/>
    </vehicle>

    <vehicle id="19" type="DEFAULT_VEHTYPE" depart="61.00" departLane="free" departSpeed="13.4098" fromTaz="10100" toTaz="10400" speedFactor="1.0000" arrival="194.00">
        <route edges="28518678#1 279611139 8918949#0 399163465#1 706534240#1 706534240#6 -254299128#1 -30030485#6 -30030485#5 -30030485#4 -30030485#3 -30030485#2 425516661#4 148874364#5 30029703#0 48211195#0 30030100#2 30030100#4 -415591483 -148846998#1"/>
    </vehicle>

    <vehicle id="826" type="DEFAULT_VEHTYPE" depart="25.00" departLane="free" departSpeed="11.1709" fromTaz="10100" toTaz="11700" speedFactor="1.0000" arrival="195.00">
        <route edges="8918949#0 8922283 88142688 396935402 396935396 396935405#2 397094231 513970793 514604867 88142687#1 359898623#1 359898622#0 24335489#1 24335489#2 359898157#0 32931798#1 262943781#1 417101704#1 224199014#1 512984874#1 512984874#2 224199013#0 512984875#0 28319343#0"/>
    </vehicle>

    <vehicle id="528" type="DEFAULT_VEHTYPE" depart="13.00" departLane="free" departSpeed="11.1781" fromTaz="10100" toTaz="11200" speedFactor="1.0000" arrival="197.00">
        <route edges="408600375#0 775083030#0 775083030#1 87297168#0 87297168#1 408575052 204967525#1 88396406#1 88396406#2 88396406#5 87297164#0 87297164#7 87297164#13 87297164#18 87297164#22 87297164#24 26938418#1 26938418#5 26938418#8 254758121#1 461084153#4 461084153#7 -769489484#4"/>
    </vehicle>

    <vehicle id="20" type="DEFAULT_VEHTYPE" depart="64.00" departLane="free" departSpeed="13.4098" fromTaz="10100" toTaz="10400" speedFactor="1.0000" arrival="197.00">
        <route edges="28518678#1 279611139 8918949#0 399163465#1 706534240#1 706534240#6 -254299128#1 -30030485#6 -30030485#5 -30030485#4 -30030485#3 -30030485#2 425516661#4 148874364#5 30029703#0 48211195#0 30030100#2 30030100#4 -415591483 -148846998#1"/>
    </vehicle>

    <vehicle id="827" type="DEFAULT_VEHTYPE" depart="28.00" departLane="free" departSpeed="8.1139" fromTaz="10100" toTaz="11700" speedFactor="1.0000" arrival="198.00">
        <route edges="8918949#0 8922283 88142688 396935402 396935396 396935405#2 397094231 513970793 514604867 88142687#1 359898623#1 359898622#0 24335489#1 24335489#2 359898157#0 32931798#1 262943781#1 417101704#1 224199014#1 512984874#1 512984874#2 224199013#0 512984875#0 28319343#0"/>
    </vehicle>

    <vehicle id="643" type="DEFAULT_VEHTYPE" depart="47.00" departLane="free" departSpeed="6.8493" fromTaz="10100" toTaz="11300" speedFactor="1.0000" arrival="199.00">
        <route edges="27054184#0 27054184#1 288265976#0 -399163468 -706549349#1 -706549349#0 775083030#0 775083030#1 30029867#0 706549350#0 706549350#3 706549350#4 706549350#5 -446598044#2 -446598044#0 -30029708#1 30030100#0 30030100#2 30030100#4 148846995#0 30030472#0 -706531342#1 -706531342#0 -706531343#0 -397060249#1 -24335486#1 -397264925 -397135720 -408586848 30035647#1"/>
    </vehicle>

    <vehicle id="21" type="DEFAULT_VEHTYPE" depart="67.00" departLane="free" departSpeed="13.4098" fromTaz="10100" toTaz="10400" speedFactor="1.0000" arrival="200.00">
        <route edges="28518678#1 279611139 8918949#0 399163465#1 706534240#1 706534240#6 -254299128#1 -30030485#6 -30030485#5 -30030485#4 -30030485#3 -30030485#2 425516661#4 148874364#5 30029703#0 48211195#0 30030100#2 30030100#4 -415591483 -148846998#1"/>
    </vehicle>

    <vehicle id="529" type="DEFAULT_VEHTYPE" depart="16.00" departLane="free" departSpeed="11.1781" fromTaz="10100" toTaz="11200" speedFactor="1.0000" arrival="201.00">
        <route edges="408600375#0 775083030#0 775083030#1 87297168#0 87297168#1 408575052 204967525#1 88396406#1 88396406#2 88396406#5 87297164#0 87297164#7 87297164#13 87297164#18 87297164#22 87297164#24 26938418#1 26938418#5 26938418#8 254758121#1 461084153#4 461084153#7 -769489484#4"/>
    </vehicle>

    <vehicle id="828" type="DEFAULT_VEHTYPE" depart="32.00" departLane="free" departSpeed="13.80" fromTaz="10100" toTaz="11700" speedFactor="1.0000" arrival="202.00">
        <route edges="8918949#0 8922283 88142688 396935402 396935396 396935405#2 397094231 513970793 514604867 88142687#1 359898623#1 359898622#0 24335489#1 24335489#2 359898157#0 32931798#1 262943781#1 417101704#1 224199014#1 512984874#1 512984874#2 224199013#0 512984875#0 28319343#0"/>
    </vehicle>

    <vehicle id="644" type="DEFAULT_VEHTYPE" depart="50.00" departLane="free" departSpeed="6.8493" fromTaz="10100" toTaz="11300" speedFactor="1.0000" arrival="202.00">
        <route edges="27054184#0 27054184#1 288265976#0 -399163468 -706549349#1 -706549349#0 775083030#0 775083030#1 30029867#0 706549350#0 706549350#3 706549350#4 706549350#5 -446598044#2 -446598044#0 -30029708#1 30030100#0 30030100#2 30030100#4 148846995#0 30030472#0 -706531342#1 -706531342#0 -706531343#0 -397060249#1 -24335486#1 -397264925 -397135720 -408586848 30035647#1"/>
    </vehicle>

    <vehicle id="22" type="DEFAULT_VEHTYPE" depart="70.00" departLane="free" departSpeed="13.4098" fromTaz="10100" toTaz="10400" speedFactor="1.0000" arrival="203.00">
        <route edges="28518678#1 279611139 8918949#0 399163465#1 706534240#1 706534240#6 -254299128#1 -30030485#6 -30030485#5 -30030485#4 -30030485#3 -30030485#2 425516661#4 148874364#5 30029703#0 48211195#0 30030100#2 30030100#4 -415591483 -148846998#1"/>
    </vehicle>

    <vehicle id="530" type="DEFAULT_VEHTYPE" depart="19.00" departLane="free" departSpeed="11.1781" fromTaz="10100" toTaz="11200" speedFactor="1.0000" arrival="204.00">
        <route edges="408600375#0 775083030#0 775083030#1 87297168#0 87297168#1 408575052 204967525#1 88396406#1 88396406#2 88396406#5 87297164#0 87297164#7 87297164#13 87297164#18 87297164#22 87297164#24 26938418#1 26938418#5 26938418#8 254758121#1 461084153#4 461084153#7 -769489484#4"/>
    </vehicle>

    <vehicle id="829" type="DEFAULT_VEHTYPE" depart="35.00" departLane="free" departSpeed="11.1709" fromTaz="10100" toTaz="11700" speedFactor="1.0000" arrival="205.00">
        <route edges="8918949#0 8922283 88142688 396935402 396935396 396935405#2 397094231 513970793 514604867 88142687#1 359898623#1 359898622#0 24335489#1 24335489#2 359898157#0 32931798#1 262943781#1 417101704#1 224199014#1 512984874#1 512984874#2 224199013#0 512984875#0 28319343#0"/>
    </vehicle>

    <vehicle id="645" type="DEFAULT_VEHTYPE" depart="53.00" departLane="free" departSpeed="6.8493" fromTaz="10100" toTaz="11300" speedFactor="1.0000" arrival="205.00">
        <route edges="27054184#0 27054184#1 288265976#0 -399163468 -706549349#1 -706549349#0 775083030#0 775083030#1 30029867#0 706549350#0 706549350#3 706549350#4 706549350#5 -446598044#2 -446598044#0 -30029708#1 30030100#0 30030100#2 30030100#4 148846995#0 30030472#0 -706531342#1 -706531342#0 -706531343#0 -397060249#1 -24335486#1 -397264925 -397135720 -408586848 30035647#1"/>
    </vehicle>

    <vehicle id="23" type="DEFAULT_VEHTYPE" depart="73.00" departLane="free" departSpeed="13.4098" fromTaz="10100" toTaz="10400" speedFactor="1.0000" arrival="206.00">
        <route edges="28518678#1 279611139 8918949#0 399163465#1 706534240#1 706534240#6 -254299128#1 -30030485#6 -30030485#5 -30030485#4 -30030485#3 -30030485#2 425516661#4 148874364#5 30029703#0 48211195#0 30030100#2 30030100#4 -415591483 -148846998#1"/>
    </vehicle>

    <vehicle id="830" type="DEFAULT_VEHTYPE" depart="38.00" departLane="free" departSpeed="8.1139" fromTaz="10100" toTaz="11700" speedFactor="1.0000" arrival="208.00">
        <route edges="8918949#0 8922283 88142688 396935402 396935396 396935405#2 397094231 513970793 514604867 88142687#1 359898623#1 359898622#0 24335489#1 24335489#2 359898157#0 32931798#1 262943781#1 417101704#1 224199014#1 512984874#1 512984874#2 224199013#0 512984875#0 28319343#0"/>
    </vehicle>

    <vehicle id="646" type="DEFAULT_VEHTYPE" depart="57.00" departLane="free" departSpeed="6.8493" fromTaz="10100" toTaz="11300" speedFactor="1.0000" arrival="208.00">